<?xml version="1.0"?>
<VTKFile type="UnstructuredGrid" version="1.0" byte_order="LittleEndian" compressor="vtkZLibDataCompressor">
  <UnstructuredGrid>
    <Piece NumberOfPoints="323" NumberOfCells="779">
      <Points>
        <DataArray type="Float64" Name="Points" NumberOfComponents="3" format="ascii">
          -1.8425000000e+00 1.8425000000e+00 7.7700000000e+00 
          -2.0000000000e+00 2.0000000000e+00 0.0000000000e+00 
          -1.8425000000e+00 -1.8425000000e+00 7.7700000000e+00 
          -2.0000000000e+00 -2.0000000000e+00 -9.0000000000e-16 
          -2.0000000000e+00 1.8000000000e+00 0.0000000000e+00 
          -1.9069594595e+00 5.0000000000e-16 4.5900000000e+00 
          -2.0000000000e+00 -1.8000000000e+00 -9.0000000000e-16 
          -1.9767398649e+00 1.3500000000e+00 1.1475000000e+00 
          -1.9534797297e+00 1.9534797297e+00 2.2950000000e+00 
          -1.9534797297e+00 9.0000000000e-01 2.2950000000e+00 
          -1.9302195946e+00 1.9302195946e+00 3.4425000000e+00 
          -1.9302195946e+00 4.5000000000e-01 3.4425000000e+00 
          -1.9069594595e+00 1.9069594595e+00 4.5900000000e+00 
          -1.9302195946e+00 -4.5000000000e-01 3.4425000000e+00 
          -1.9069594595e+00 -1.9069594595e+00 4.5900000000e+00 
          -1.9534797297e+00 -9.0000000000e-01 2.2950000000e+00 
          -1.9302195946e+00 -1.9302195946e+00 3.4425000000e+00 
          -1.9767398649e+00 -1.3500000000e+00 1.1475000000e+00 
          -1.9534797297e+00 -1.9534797297e+00 2.2950000000e+00 
          -1.8854729730e+00 6.1416666667e-01 5.6500000000e+00 
          -1.8854729730e+00 1.8854729730e+00 5.6500000000e+00 
          -1.8639864865e+00 1.2283333333e+00 6.7100000000e+00 
          -1.8854729730e+00 -6.1416666667e-01 5.6500000000e+00 
          -1.8854729730e+00 -1.8854729730e+00 5.6500000000e+00 
          -1.8639864865e+00 -1.2283333333e+00 6.7100000000e+00 
          -1.8639864865e+00 -1.8639864865e+00 6.7100000000e+00 
          -1.8639864865e+00 1.8639864865e+00 6.7100000000e+00 
          -1.9767398649e+00 -1.9767398649e+00 1.1475000000e+00 
          -1.9767398649e+00 1.9767398649e+00 1.1475000000e+00 
          -1.7395000000e+00 1.7395000000e+00 1.0948000000e+01 
          -1.7395000000e+00 -1.7395000000e+00 1.0948000000e+01 
          -1.7395000000e+00 0.0000000000e+00 1.0948000000e+01 
          -1.8081666667e+00 1.2283333333e+00 8.8293333333e+00 
          -1.7738333333e+00 1.7738333333e+00 9.8886666667e+00 
          -1.7738333333e+00 6.1416666667e-01 9.8886666667e+00 
          -1.7738333333e+00 -6.1416666667e-01 9.8886666667e+00 
          -1.8081666667e+00 -1.2283333333e+00 8.8293333333e+00 
          -1.7738333333e+00 -1.7738333333e+00 9.8886666667e+00 
          -1.8081666667e+00 -1.8081666667e+00 8.8293333333e+00 
          -1.8081666667e+00 1.8081666667e+00 8.8293333333e+00 
          -1.6330000000e+00 1.6330000000e+00 1.6572000000e+01 
          -1.6330000000e+00 -1.6330000000e+00 1.6572000000e+01 
          -1.6862500000e+00 1.6862500000e+00 1.3760000000e+01 
          -1.6330000000e+00 9.0000000000e-16 1.6572000000e+01 
          -1.6862500000e+00 -1.6862500000e+00 1.3760000000e+01 
          -1.7128750000e+00 8.4312500000e-01 1.2354000000e+01 
          -1.6596250000e+00 8.4312500000e-01 1.5166000000e+01 
          -1.6596250000e+00 -8.4312500000e-01 1.5166000000e+01 
          -1.7128750000e+00 -8.4312500000e-01 1.2354000000e+01 
          -1.7128750000e+00 1.7128750000e+00 1.2354000000e+01 
          -1.6596250000e+00 1.6596250000e+00 1.5166000000e+01 
          -1.7128750000e+00 -1.7128750000e+00 1.2354000000e+01 
          -1.6596250000e+00 -1.6596250000e+00 1.5166000000e+01 
          -1.5390000000e+00 1.5390000000e+00 2.1548000000e+01 
          -1.5390000000e+00 -1.5390000000e+00 2.1548000000e+01 
          -1.5860000000e+00 1.5860000000e+00 1.9060000000e+01 
          -1.5390000000e+00 2.7000000000e-15 2.1548000000e+01 
          -1.5860000000e+00 -1.5860000000e+00 1.9060000000e+01 
          -1.5625000000e+00 7.9300000000e-01 2.0304000000e+01 
          -1.5625000000e+00 -7.9300000000e-01 2.0304000000e+01 
          -1.6095000000e+00 7.9300000000e-01 1.7816000000e+01 
          -1.6095000000e+00 -7.9300000000e-01 1.7816000000e+01 
          -1.0000000000e+00 1.0000000000e+00 3.0093000000e+01 
          -1.0000000000e+00 -1.0000000000e+00 3.0093000000e+01 
          -1.4042500000e+00 1.4042500000e+00 2.3684250000e+01 
          -1.2695000000e+00 0.0000000000e+00 2.5820500000e+01 
          -1.4042500000e+00 -1.4042500000e+00 2.3684250000e+01 
          -1.1347500000e+00 1.1347500000e+00 2.7956750000e+01 
          -1.0000000000e+00 0.0000000000e+00 3.0093000000e+01 
          -1.1347500000e+00 -1.1347500000e+00 2.7956750000e+01 
          -1.4716250000e+00 7.0212500000e-01 2.2616125000e+01 
          -1.2695000000e+00 1.2695000000e+00 2.5820500000e+01 
          -1.3368750000e+00 7.0212500000e-01 2.4752375000e+01 
          -1.2695000000e+00 -1.2695000000e+00 2.5820500000e+01 
          -1.3368750000e+00 -7.0212500000e-01 2.4752375000e+01 
          -1.4716250000e+00 -7.0212500000e-01 2.2616125000e+01 
          -1.2021250000e+00 5.6737500000e-01 2.6888625000e+01 
          -1.2021250000e+00 -5.6737500000e-01 2.6888625000e+01 
          -1.0673750000e+00 5.6737500000e-01 2.9024875000e+01 
          -1.0673750000e+00 -5.6737500000e-01 2.9024875000e+01 
          -9.5640243902e-01 -9.5640243902e-01 3.1393000000e+01 
          -9.5640243902e-01 9.5640243902e-01 3.1393000000e+01 
          -8.6250000000e-01 -8.6250000000e-01 3.4193000000e+01 
          -8.6250000000e-01 8.6250000000e-01 3.4193000000e+01 
          -8.1906097561e-01 -8.1906097561e-01 3.5493000000e+01 
          -8.1906097561e-01 8.1906097561e-01 3.5493000000e+01 
          -7.2550000000e-01 -7.2550000000e-01 3.8293000000e+01 
          -7.2550000000e-01 7.2550000000e-01 3.8293000000e+01 
          -9.3292682927e-01 5.0167682927e-01 3.2093000000e+01 
          -8.8597560976e-01 4.0777439024e-01 3.3493000000e+01 
          -9.0945121951e-01 9.0945121951e-01 3.2793000000e+01 
          -8.8597560976e-01 -4.0777439024e-01 3.3493000000e+01 
          -9.3292682927e-01 -5.0167682927e-01 3.2093000000e+01 
          -9.0945121951e-01 -9.0945121951e-01 3.2793000000e+01 
          -7.4889024390e-01 3.3935975610e-01 3.7593000000e+01 
          -7.9567073171e-01 4.3292073171e-01 3.6193000000e+01 
          -7.7228048780e-01 7.7228048780e-01 3.6893000000e+01 
          -7.4889024390e-01 -3.3935975610e-01 3.7593000000e+01 
          -7.9567073171e-01 -4.3292073171e-01 3.6193000000e+01 
          -7.7228048780e-01 -7.7228048780e-01 3.6893000000e+01 
          -5.8040000000e-01 5.8040000000e-01 3.9493000000e+01 
          -5.8040000000e-01 -5.8040000000e-01 3.9493000000e+01 
          -7.2550000000e-02 -7.2550000000e-02 4.3193000000e+01 
          1.2283333333e+00 -1.8639864865e+00 6.7100000000e+00 
          1.8639864865e+00 -1.8639864865e+00 6.7100000000e+00 
          -1.2283333333e+00 -1.8639864865e+00 6.7100000000e+00 
          6.1416666667e-01 -1.8854729730e+00 5.6500000000e+00 
          1.8854729730e+00 -1.8854729730e+00 5.6500000000e+00 
          -6.1416666667e-01 -1.8854729730e+00 5.6500000000e+00 
          4.5000000000e-01 -1.9302195946e+00 3.4425000000e+00 
          1.9302195946e+00 -1.9302195946e+00 3.4425000000e+00 
          -4.5000000000e-01 -1.9302195946e+00 3.4425000000e+00 
          9.0000000000e-01 -1.9534797297e+00 2.2950000000e+00 
          1.9534797297e+00 -1.9534797297e+00 2.2950000000e+00 
          -9.0000000000e-01 -1.9534797297e+00 2.2950000000e+00 
          1.3500000000e+00 -1.9767398649e+00 1.1475000000e+00 
          1.9767398649e+00 -1.9767398649e+00 1.1475000000e+00 
          -1.3500000000e+00 -1.9767398649e+00 1.1475000000e+00 
          1.9069594595e+00 -1.9069594595e+00 4.5900000000e+00 
          1.8425000000e+00 -1.8425000000e+00 7.7700000000e+00 
          2.0000000000e+00 -2.0000000000e+00 -9.0000000000e-16 
          -1.8000000000e+00 -2.0000000000e+00 0.0000000000e+00 
          -1.0000000000e-15 -1.9069594595e+00 4.5900000000e+00 
          1.8000000000e+00 -2.0000000000e+00 -9.0000000000e-16 
          1.7395000000e+00 -1.7395000000e+00 1.0948000000e+01 
          -5.0000000000e-16 -1.7395000000e+00 1.0948000000e+01 
          -1.2283333333e+00 -1.8081666667e+00 8.8293333333e+00 
          -6.1416666667e-01 -1.7738333333e+00 9.8886666667e+00 
          6.1416666667e-01 -1.7738333333e+00 9.8886666667e+00 
          1.2283333333e+00 -1.8081666667e+00 8.8293333333e+00 
          1.7738333333e+00 -1.7738333333e+00 9.8886666667e+00 
          -8.4312500000e-01 -1.7128750000e+00 1.2354000000e+01 
          8.4312500000e-01 -1.7128750000e+00 1.2354000000e+01 
          1.7128750000e+00 -1.7128750000e+00 1.2354000000e+01 
          -8.4312500000e-01 -1.6596250000e+00 1.5166000000e+01 
          8.4312500000e-01 -1.6596250000e+00 1.5166000000e+01 
          1.6596250000e+00 -1.6596250000e+00 1.5166000000e+01 
          1.6330000000e+00 -1.6330000000e+00 1.6572000000e+01 
          -1.4000000000e-15 -1.6330000000e+00 1.6572000000e+01 
          1.6862500000e+00 -1.6862500000e+00 1.3760000000e+01 
          1.5390000000e+00 -1.5390000000e+00 2.1548000000e+01 
          -3.2000000000e-15 -1.5390000000e+00 2.1548000000e+01 
          1.5860000000e+00 -1.5860000000e+00 1.9060000000e+01 
          -7.9300000000e-01 -1.5625000000e+00 2.0304000000e+01 
          7.9300000000e-01 -1.5625000000e+00 2.0304000000e+01 
          -7.9300000000e-01 -1.6095000000e+00 1.7816000000e+01 
          7.9300000000e-01 -1.6095000000e+00 1.7816000000e+01 
          1.0000000000e+00 -1.0000000000e+00 3.0093000000e+01 
          -4.0000000000e-16 -1.2695000000e+00 2.5820500000e+01 
          1.4042500000e+00 -1.4042500000e+00 2.3684250000e+01 
          -3.0000000000e-16 -1.0000000000e+00 3.0093000000e+01 
          1.1347500000e+00 -1.1347500000e+00 2.7956750000e+01 
[...]
      <PointData>
        <DataArray type="Int64" Name="NodeTag" format="ascii">
          1
          2
          3
          4
          5
          6
          7
          8
          9
          10
          11
          12
          13
          14
          15
          16
          17
          18
          19
          20
          21
          22
          23
          24
          25
          26
          27
          28
          29
          30
          31
          32
          33
          34
          35
          36
          37
          38
          39
          40
          41
          42
          43
          44
          45
          46
          47
          48
          49
          50
          51
          52
          53
          54
          55
          56
          57
          58
          59
          60
          61
          62
          63
          64
          65
          66
          67
          68
          69
          70
          71
          72
          73
          74
          75
          76
          77
          78
          79
          80
          81
          82
          83
          84
          85
          86
          87
          88
          89
          90
          91
          92
          93
          94
          95
          96
          97
          98
          99
          100
          101
          102
          103
          104
          105
          106
          107
          108
          109
          110
          111
          112
          113
          114
          115
          116
          117
          118
          119
          120
          121
          122
          123
          124
          125
          126
          127
          128
          129
          130
          131
          132
          133
          134
          135
          136
          137
          138
          139
          140
          141
          142
          143
          144
          145
          146
          147
          148
          149
          150
          151
          152
          153
          154
          155
          156
          157
          158
          159
          160
          161
          162
          163
          164
          165
          166
          167
          168
          169
          170
          171
          172
          173
          174
          175
          176
          177
          178
          179
          180
          181
          182
          183
          184
          185
          186
          187
          188
          189
          190
          191
          192
          193
          194
          195
          196
          197
          198
          199
          200
          201
          202
          203
          204
          205
          206
          207
          208
          209
          210
          211
          212
          213
          214
          215
          216
          217
          218
          219
          220
          221
          222
          223
          224
          225
          226
          227
          228
          229
          230
          231
          232
          233
          234
          235
          236
          237
          238
          239
          240
          241
          242
          243
          244
          245
          246
          247
          248
          249
          250
          251
          252
          253
          254
          255
          256
          257
          258
          259
          260
          261
          262
          263
          264
          265
          266
          267
          268
          269
          270
          271
          272
          273
          274
          275
          276
          277
          278
          279
          280
          281
          282
          283
          284
          285
          286
          287
          288
          289
          290
          291
          292
          293
          294
          295
          296
          297
          298
          299
          300
          301
          302
          303
          304
          305
          306
          307
          308
          309
          310
          311
          312
          313
          314
          315
          316
          317
          318
          319
          320
          321
          322
          323
        </DataArray>
        <DataArray type="Float64" Name="Displacement" NumberOfComponents="3" format="ascii">
          9.2470823000e-05 -7.6226848548e-04 -1.3044662757e-04 
          0.0000000000e+00 0.0000000000e+00 0.0000000000e+00 
          4.5392808013e-04 -1.4804515316e-03 6.3619405594e-04 
          0.0000000000e+00 0.0000000000e+00 0.0000000000e+00 
          0.0000000000e+00 0.0000000000e+00 0.0000000000e+00 
          1.8077958617e-04 -4.6120655341e-04 4.9638101964e-04 
          0.0000000000e+00 0.0000000000e+00 0.0000000000e+00 
          2.3617177530e-05 -5.9996115485e-05 3.0175891041e-05 
          6.1540673383e-05 -8.4782021691e-05 9.7961544400e-05 
          7.9641444365e-05 -1.7008783612e-04 2.3852475769e-05 
          1.0557172678e-04 -1.6494025224e-04 1.5333799358e-04 
          1.3458680693e-04 -3.1524354482e-04 5.6249516660e-05 
          1.4354771600e-04 -2.7502312697e-04 1.6185768861e-04 
          1.4218456425e-04 -4.1809900406e-04 9.3209668481e-04 
          2.1866308264e-04 -7.2171310444e-04 8.1011103198e-04 
          1.0767684244e-04 -1.8550320357e-04 1.0469769447e-03 
          1.5654115606e-04 -4.6350858010e-04 9.1962656437e-04 
          7.0469907217e-05 5.2007148083e-05 7.5435784212e-04 
          1.0609427267e-04 -2.5884268793e-04 9.0282902981e-04 
          1.9444408643e-04 -3.8456811603e-04 1.6458861066e-04 
          1.6275661809e-04 -3.9465062142e-04 9.7669450802e-05 
          1.7363087495e-04 -4.8080274547e-04 -5.3336631836e-05 
          2.4980188869e-04 -8.8133152097e-04 1.0655385671e-03 
          2.8239533971e-04 -9.6198846710e-04 8.6505395636e-04 
          3.3189076654e-04 -1.2446301790e-03 9.6595367307e-04 
          3.5079990006e-04 -1.1941562866e-03 8.2412484428e-04 
          1.5099115870e-04 -5.4326372244e-04 1.5739916052e-05 
          7.0570230064e-05 -1.1431318040e-04 6.7350208589e-04 
          1.6069287370e-05 -3.6631136845e-05 5.0014245312e-05 
          3.1761727312e-04 -3.3808450860e-03 3.0398454811e-04 
          7.2548161428e-04 -3.9522671931e-03 8.5629945281e-05 
          5.2943657177e-04 -4.0330845380e-03 -5.2576913329e-05 
          1.0488229022e-04 -1.2836927994e-03 -6.0893482201e-04 
          1.4433848648e-04 -2.2340391856e-03 5.4234296520e-05 
          2.8406050681e-04 -2.3695239187e-03 -1.0495609670e-03 
          5.8505449422e-04 -2.8280980250e-03 8.3363802201e-04 
          5.2566806432e-04 -2.1331231891e-03 5.6964639981e-04 
          6.3044018771e-04 -2.9151194787e-03 4.0307682544e-05 
          5.4398334415e-04 -2.0196136533e-03 1.8267050408e-04 
          6.0661910942e-05 -1.2695209583e-03 -1.4685132699e-04 
          1.1049086458e-03 -9.3333237905e-03 9.4838537438e-05 
          8.1700538160e-04 -9.6050010384e-03 -1.4003231177e-03 
          6.8421554100e-04 -5.6925772315e-03 4.1628180649e-04 
          9.5088555218e-04 -9.6500614355e-03 -3.3496639764e-04 
          7.9335210757e-04 -6.2121024071e-03 -6.1283867057e-04 
          5.8359894290e-04 -4.9405439730e-03 -3.0470331482e-05 
          8.7986292117e-04 -6.7555343255e-03 -8.0337350567e-04 
          7.6887727283e-04 -7.5991662294e-03 -3.1353599787e-04 
          7.3173598362e-04 -5.4325493810e-03 1.5266912702e-04 
          5.6019644516e-04 -4.7289820531e-03 5.3136198728e-04 
          8.0361827777e-04 -7.0056072312e-03 2.5357500262e-04 
          7.9689319876e-04 -5.2514946158e-03 -4.6279044638e-04 
          7.6377692397e-04 -7.5037681635e-03 -1.1650936748e-03 
          7.9631776739e-04 -1.6267383350e-02 3.1647393221e-04 
          7.6087696593e-04 -1.6372277352e-02 -3.0216831298e-03 
          1.5109941217e-03 -1.3079054418e-02 -5.1250365311e-05 
          7.3181794454e-04 -1.6353244113e-02 -5.1723746776e-04 
          8.8278750275e-04 -1.3082282424e-02 -2.1244226130e-03 
          1.1783112978e-03 -1.4302839682e-02 -2.9801575012e-04 
          8.5333080143e-04 -1.4532926500e-02 -1.4501937023e-03 
          1.2727113347e-03 -1.1776463822e-02 -4.7181834887e-04 
          8.8076181885e-04 -1.2098872145e-02 -3.8076722112e-04 
          -2.0097789691e-03 -2.8208840686e-02 2.7558380037e-04 
          -1.8518900552e-03 -2.8327899624e-02 -4.1612346486e-03 
          2.3766678439e-05 -1.9091901947e-02 2.8325129053e-04 
          -5.7227964809e-04 -2.1677854953e-02 -1.2503472399e-03 
          2.8505127397e-04 -1.9179805421e-02 -2.5754975423e-03 
          -1.4641590921e-03 -2.4148683383e-02 -2.2195113515e-04 
          -1.8567524693e-03 -2.8059892549e-02 -1.4159067867e-03 
          -1.1263543416e-03 -2.4231328583e-02 -3.4189222557e-03 
          4.1093373674e-04 -1.8039375076e-02 -3.4708750958e-04 
          -6.7958132680e-04 -2.1458792395e-02 2.5975350707e-04 
          -2.7547604891e-04 -2.0205488137e-02 -6.0345630621e-04 
          -4.0769034655e-04 -2.1432261019e-02 -2.2551715767e-03 
          -1.2119948894e-04 -2.0192913410e-02 -1.6497925442e-03 
          5.3563248617e-04 -1.7964295850e-02 -1.5860329655e-03 
          -9.9988047492e-04 -2.2744448952e-02 -4.8682592047e-04 
          -8.3447765730e-04 -2.3179174513e-02 -1.8873404819e-03 
          -1.6389116995e-03 -2.5971280743e-02 -6.5880679658e-04 
          -1.4767362633e-03 -2.6128153331e-02 -2.7541040950e-03 
          -2.4037420515e-03 -3.1537561208e-02 -4.3648254072e-03 
          -2.5313761166e-03 -3.1424674365e-02 3.7502150488e-04 
          -3.6659277947e-03 -3.8408867881e-02 -4.0454962203e-03 
          -3.7985189546e-03 -3.8362276545e-02 2.2210526360e-04 
          -4.2902868981e-03 -4.1583775095e-02 -3.9680671918e-03 
          -4.4257970186e-03 -4.1648969088e-02 -8.2547351373e-06 
          -5.6202211932e-03 -4.8490479288e-02 -4.0889211694e-03 
          -5.7597653942e-03 -4.8694446371e-02 -5.1021459719e-04 
          -2.8343233446e-03 -3.3146067484e-02 -7.5067185812e-04 
          -3.4646845404e-03 -3.6630316374e-02 -9.3522480675e-04 
          -3.1607731533e-03 -3.4878276910e-02 2.6851933792e-04 
          -3.3440580575e-03 -3.6665687718e-02 -2.9683005480e-03 
          -2.7161001236e-03 -3.3267118374e-02 -3.3126475525e-03 
          -3.0124045089e-03 -3.4978491989e-02 -4.2677256233e-03 
          -5.4280175902e-03 -4.6935751710e-02 -1.5315697182e-03 
          -4.7661366694e-03 -4.3312968202e-02 -1.1978982838e-03 
          -5.1176374072e-03 -4.5156724319e-02 -4.6154563664e-04 
          -5.2940029844e-03 -4.6785932846e-02 -3.1324902554e-03 
          -4.6310278978e-03 -4.3386658153e-02 -3.2145637196e-03 
          -4.9522079710e-03 -4.5035345793e-02 -4.1455036432e-03 
          -6.3400201965e-03 -5.1705077508e-02 -1.0158227868e-03 
          -6.2046313476e-03 -5.1503708253e-02 -3.9329372119e-03 
          -7.0340033249e-03 -5.9889888884e-02 -2.6019033891e-03 
          1.4741962835e-05 -1.1389476933e-03 -6.1631498841e-04 
          -1.2563706010e-04 -1.1664082249e-03 -5.9580267155e-04 
          2.9946182669e-04 -1.1696907815e-03 8.0341501271e-04 
          1.3816992560e-04 -8.8041530996e-04 -3.4073622590e-04 
          -7.9540950266e-05 -9.2809543229e-04 -4.0843410966e-04 
          2.6285352432e-04 -9.0747276218e-04 8.1126799769e-04 
          1.5524974106e-04 -4.5795095203e-04 -2.1580864662e-05 
          -2.9839274856e-05 -4.4866541276e-04 -1.8164807725e-04 
          2.5645114342e-04 -4.6866705893e-04 8.4812203331e-04 
          3.5501806274e-05 -2.6886079756e-04 -7.2001554957e-06 
          -2.4261614099e-05 -2.5355097828e-04 -4.4871720085e-05 
          2.6987297027e-04 -2.7760888081e-04 9.2477835816e-04 
          -1.6244567897e-05 -1.2117663042e-04 2.8126476822e-05 
          -2.7810927426e-05 -1.1740858213e-04 1.1575930692e-05 
          2.3641477922e-04 -1.2040401319e-04 6.9339199378e-04 
          -5.0769391090e-05 -6.9040574497e-04 -2.2931703176e-04 
          -2.1209293936e-04 -1.4625813808e-03 -8.8181942390e-04 
          0.0000000000e+00 0.0000000000e+00 0.0000000000e+00 
          0.0000000000e+00 0.0000000000e+00 0.0000000000e+00 
          2.8930369908e-04 -6.7050762633e-04 3.5248390293e-04 
          0.0000000000e+00 0.0000000000e+00 0.0000000000e+00 
          7.1224607156e-05 -4.2823239748e-03 -1.9434543563e-03 
          4.2184976732e-04 -4.0365330789e-03 -1.0424437246e-03 
          4.0148466808e-04 -2.1580344257e-03 6.8645880556e-05 
          6.0704333546e-04 -3.1731736047e-03 -1.7656834164e-04 
          1.9111413835e-04 -3.2972887019e-03 -1.2031104819e-03 
          -1.2700932930e-04 -2.2246902423e-03 -1.0322994919e-03 
          -1.9568579445e-04 -3.1481789151e-03 -1.4514155549e-03 
          5.7666404047e-04 -5.1184806558e-03 -5.3787834651e-04 
          3.6087206820e-04 -5.3534098711e-03 -1.6891408039e-03 
          4.1844416369e-04 -5.5252008945e-03 -1.8374087239e-03 
          5.9258372504e-04 -7.6751389747e-03 -1.1428421957e-03 
          7.6798292397e-04 -7.7532092915e-03 -2.2161060126e-03 
          4.0752276185e-04 -7.6281823311e-03 -2.0995581156e-03 
          1.6158024451e-04 -9.5741551722e-03 -2.5458073003e-03 
          2.0196283512e-04 -9.5389672043e-03 -1.8031519763e-03 
          5.1730454653e-04 -6.4568260663e-03 -1.5065446568e-03 
          6.9024145891e-05 -1.5892018017e-02 -2.1150218989e-03 
          3.5148479242e-04 -1.5967569132e-02 -2.9914576936e-03 
          -9.8217256420e-05 -1.2668068909e-02 -2.1007750437e-03 
          5.3557486773e-04 -1.4469008018e-02 -2.5070113802e-03 
          -1.0377233323e-04 -1.4378469593e-02 -2.4497371316e-03 
          6.5697076265e-04 -1.1282088687e-02 -2.2042321517e-03 
          -1.5155478442e-04 -1.1097981097e-02 -2.3896505803e-03 
          -1.6671033195e-03 -2.8292902420e-02 -3.4546177758e-03 
          -6.7242864873e-04 -2.1436360488e-02 -2.6910873225e-03 
          9.8668646214e-05 -1.9061552917e-02 -2.7329937444e-03 
          -1.4352628630e-03 -2.7727915014e-02 -2.4329673223e-03 
          -1.0851244099e-03 -2.4175488596e-02 -2.2817945389e-03 
          5.6556119093e-04 -1.7577756465e-02 -2.9818397903e-03 
          1.0578944781e-04 -2.0207500935e-02 -2.2391328710e-03 
          -4.0601981541e-04 -2.1441902228e-02 -2.7795422283e-03 
          2.3126381919e-05 -2.0164979323e-02 -3.1516025706e-03 
          4.5220666092e-04 -1.7359077365e-02 -2.6872536007e-03 
          -1.2323248945e-03 -2.2713672174e-02 -2.3678557062e-03 
          -9.0224747032e-04 -2.2716135665e-02 -2.5248990959e-03 
          -1.5998046299e-03 -2.6007995223e-02 -3.5302642630e-03 
          -1.0361399471e-03 -2.5949492700e-02 -2.6938542391e-03 
          -2.2205263628e-03 -3.1511237653e-02 -3.3308962700e-03 
          -3.7414982540e-03 -3.8356342323e-02 -3.0807946452e-03 
          -4.4455786094e-03 -4.1554863411e-02 -3.2821959944e-03 
          -5.9784481915e-03 -4.8468254576e-02 -3.3462458208e-03 
          -2.7058728839e-03 -3.3255901370e-02 -4.1228579689e-03 
          -3.3000461567e-03 -3.6689443545e-02 -3.9528458619e-03 
          -3.3334006627e-03 -3.6652111965e-02 -3.3725214092e-03 
          -2.6072984752e-03 -3.3231069154e-02 -3.4922904791e-03 
          -2.9567193023e-03 -3.4940194658e-02 -3.1340916899e-03 
          -5.3098696540e-03 -4.6758847661e-02 -3.9377662313e-03 
          -4.6949436534e-03 -4.3304808160e-02 -3.9037097442e-03 
          -5.5588285164e-03 -4.6742358084e-02 -3.5606758038e-03 
          -4.7806973881e-03 -4.3283161815e-02 -3.4655305400e-03 
          -5.2072390871e-03 -4.5011718433e-02 -3.3079177377e-03 
          -6.5539028035e-03 -5.1462390024e-02 -3.1778093599e-03 
          -7.9535444962e-03 -6.0639531280e-02 -2.4450183536e-03 
          2.6685063756e-05 -5.7334634496e-04 -5.1643005423e-04 
          4.5307065897e-05 -5.3260199679e-04 -4.5194444636e-04 
          -1.0473049334e-04 -1.2769519920e-03 -4.5212095865e-04 
          -1.4281333443e-05 -5.6055147124e-04 -3.9771948990e-04 
          1.4324793950e-05 -4.0069741078e-04 -4.7709473945e-04 
          -5.3495717582e-05 -1.0082930971e-03 -2.2935973848e-04 
          -2.6502152722e-05 -4.8879878077e-04 -7.6136705808e-04 
          -1.6730233215e-05 -1.9062088159e-04 -5.1936205522e-04 
          -1.7129076397e-05 -6.6772896426e-04 -8.3749765469e-05 
          -1.6112910710e-05 -1.6810075251e-04 -6.4894772642e-04 
          -1.1354959618e-05 -1.0475460992e-04 -4.7479845742e-04 
          -1.9846702978e-05 -3.9486075536e-04 8.7391086482e-05 
          2.9674249857e-06 1.5848367580e-05 -3.5372719554e-04 
          7.4642570938e-06 -4.2604327710e-05 -3.0776618719e-04 
          -2.4704609221e-05 -1.2923595111e-04 6.9662547731e-05 
          -4.6794173072e-06 -2.9380211083e-04 -5.0511316441e-04 
          1.0638210786e-04 -7.2880029368e-04 -3.8185305944e-04 
          0.0000000000e+00 0.0000000000e+00 0.0000000000e+00 
          0.0000000000e+00 0.0000000000e+00 0.0000000000e+00 
          -2.7631119756e-05 -7.7778516862e-04 -3.9362714953e-04 
          0.0000000000e+00 0.0000000000e+00 0.0000000000e+00 
          2.8281663805e-04 -3.5675328903e-03 6.8323705149e-06 
          2.2778971851e-04 -4.0137902525e-03 -1.1683090586e-03 
          -2.0828489583e-04 -2.1896530384e-03 -1.1814004223e-03 
          1.9055581155e-05 -3.1542545575e-03 -1.4254055602e-03 
          2.2269262211e-04 -2.4445841248e-03 -1.4360551335e-03 
          1.5663376121e-04 -1.2950146863e-03 -8.3498541874e-04 
          2.1504313761e-04 -2.2840920954e-03 -2.5458228605e-05 
          4.3640295040e-04 -5.4402264489e-03 -1.2398391112e-03 
          2.9209316189e-04 -5.2423554022e-03 -5.1865658370e-04 
          3.3723127452e-04 -5.1024098796e-03 2.0053829465e-04 
          4.3160302656e-04 -7.8831601450e-03 -1.2952758156e-03 
          3.1533953992e-04 -7.3900309812e-03 -9.4002927251e-04 
          3.1003555623e-04 -7.4083516507e-03 -6.8669047880e-05 
          5.7412022046e-04 -9.3883924215e-03 4.9927835184e-04 
          3.7769979841e-04 -9.5437303777e-03 -1.0999214363e-03 
          2.9052982782e-04 -6.1805408531e-03 8.0261217096e-05 
          7.3017594599e-04 -1.6105194086e-02 5.2838309189e-04 
          4.1753451384e-04 -1.5897093341e-02 -1.2524386236e-03 
          1.0924221617e-03 -1.2499315135e-02 5.0586074249e-04 
          1.4827397977e-04 -1.3845351337e-02 -1.3109833230e-03 
          8.4239480969e-04 -1.4012342661e-02 -2.9839906844e-04 
          7.9382588092e-05 -1.1435095584e-02 -1.3156430709e-03 
          7.3327081458e-04 -1.1352114113e-02 -6.5822620734e-04 
          -1.5290523922e-03 -2.8220613434e-02 1.1894555458e-03 
          -4.3158302521e-04 -2.1383973233e-02 -2.3223031552e-04 
          1.6692442540e-04 -1.9139483526e-02 8.5505459853e-04 
          -1.5260618484e-03 -2.8411377285e-02 -8.9575407608e-04 
          -9.1640092392e-04 -2.4253342739e-02 1.1065701908e-03 
          1.6705294500e-04 -1.8277579385e-02 -9.9147216504e-04 
          -1.2125128508e-04 -2.0180208310e-02 -1.5258968131e-03 
          -4.3616595844e-04 -2.1564320581e-02 1.2676836269e-03 
          -1.6346372718e-04 -2.0437299183e-02 8.1452215685e-04 
          3.9679934329e-04 -1.8139188280e-02 -9.8098844245e-04 
          -7.2710279487e-04 -2.2712423636e-02 -1.3506047166e-03 
          -7.0078851158e-04 -2.2899821481e-02 2.8630114703e-04 
          -1.3170876112e-03 -2.6151871118e-02 -1.9233720011e-03 
          -1.1545593743e-03 -2.5968528554e-02 -1.6784115838e-05 
          -3.7787848520e-03 -3.8367524433e-02 1.0404543642e-03 
          -2.2236293144e-03 -3.1413517601e-02 1.1476793455e-03 
          -4.5037404503e-03 -4.1605198075e-02 9.7911870008e-04 
          -2.5902251066e-03 -3.3195728124e-02 -2.1735875705e-03 
          -3.3499966809e-03 -3.6659562689e-02 -1.8890695683e-03 